<?xml version="1.0"?>
<VTKFile type="UnstructuredGrid" version="0.1">
<UnstructuredGrid>
<FieldData>
<DataArray Name="TIME" type="Float64" format="ascii" NumberOfTuples="1">
0.000000e+00
</DataArray>
</FieldData>
<FieldData>
<DataArray Name="CYCLE" type="Int32" format="ascii" NumberOfTuples="1">
0
</DataArray>
</FieldData>
<Piece NumberOfPoints="8199" NumberOfCells="39573">
<Points>
<DataArray NumberOfComponents="3" type="Float64" format="ascii">
-1.500000e+02 1.500000e+02 0.000000e+00
-1.500000e+02 -1.500000e+02 0.000000e+00
1.500000e+02 -1.500000e+02 0.000000e+00
1.500000e+02 1.500000e+02 0.000000e+00
-1.500000e+02 1.500000e+02 -2.000000e+02
-1.500000e+02 -1.500000e+02 -2.000000e+02
1.500000e+02 -1.500000e+02 -2.000000e+02
1.500000e+02 1.500000e+02 -2.000000e+02
2.000000e+01 1.000000e+02 -1.000000e+01
2.000000e+01 -1.000000e+02 -1.000000e+01
4.000000e+01 -1.000000e+02 -1.000000e+01
4.000000e+01 1.000000e+02 -1.000000e+01
2.000000e+01 1.000000e+02 -3.000000e+01
2.000000e+01 -1.000000e+02 -3.000000e+01
4.000000e+01 -1.000000e+02 -3.000000e+01
4.000000e+01 1.000000e+02 -3.000000e+01
0.000000e+00 0.000000e+00 0.000000e+00
-9.450000e+01 6.000000e+00 0.000000e+00
-9.150000e+01 6.000000e+00 0.000000e+00
-8.850000e+01 6.000000e+00 0.000000e+00
-8.550000e+01 6.000000e+00 0.000000e+00
-8.250000e+01 6.000000e+00 0.000000e+00
-7.950000e+01 6.000000e+00 0.000000e+00
-7.650000e+01 6.000000e+00 0.000000e+00
-7.350000e+01 6.000000e+00 0.000000e+00
-7.050000e+01 6.000000e+00 0.000000e+00
-6.750000e+01 6.000000e+00 0.000000e+00
-6.450000e+01 6.000000e+00 0.000000e+00
-6.150000e+01 6.000000e+00 0.000000e+00
-5.850000e+01 6.000000e+00 0.000000e+00
-5.550000e+01 6.000000e+00 0.000000e+00
-5.250000e+01 6.000000e+00 0.000000e+00
-4.950000e+01 6.000000e+00 0.000000e+00
-4.650000e+01 6.000000e+00 0.000000e+00
-4.350000e+01 6.000000e+00 0.000000e+00
-4.050000e+01 6.000000e+00 0.000000e+00
-3.750000e+01 6.000000e+00 0.000000e+00
-3.450000e+01 6.000000e+00 0.000000e+00
-3.150000e+01 6.000000e+00 0.000000e+00
-2.850000e+01 6.000000e+00 0.000000e+00
-2.550000e+01 6.000000e+00 0.000000e+00
-2.250000e+01 6.000000e+00 0.000000e+00
-1.950000e+01 6.000000e+00 0.000000e+00
-1.650000e+01 6.000000e+00 0.000000e+00
-1.350000e+01 6.000000e+00 0.000000e+00
-1.050000e+01 6.000000e+00 0.000000e+00
-7.500000e+00 6.000000e+00 0.000000e+00
-4.500000e+00 6.000000e+00 0.000000e+00
-1.500000e+00 6.000000e+00 0.000000e+00
1.500000e+00 6.000000e+00 0.000000e+00
4.500000e+00 6.000000e+00 0.000000e+00
7.500000e+00 6.000000e+00 0.000000e+00
1.050000e+01 6.000000e+00 0.000000e+00
1.350000e+01 6.000000e+00 0.000000e+00
1.650000e+01 6.000000e+00 0.000000e+00
1.950000e+01 6.000000e+00 0.000000e+00
2.250000e+01 6.000000e+00 0.000000e+00
2.550000e+01 6.000000e+00 0.000000e+00
2.850000e+01 6.000000e+00 0.000000e+00
3.150000e+01 6.000000e+00 0.000000e+00
3.450000e+01 6.000000e+00 0.000000e+00
3.750000e+01 6.000000e+00 0.000000e+00
4.050000e+01 6.000000e+00 0.000000e+00
4.350000e+01 6.000000e+00 0.000000e+00
4.650000e+01 6.000000e+00 0.000000e+00
4.950000e+01 6.000000e+00 0.000000e+00
5.250000e+01 6.000000e+00 0.000000e+00
5.550000e+01 6.000000e+00 0.000000e+00
5.850000e+01 6.000000e+00 0.000000e+00
6.150000e+01 6.000000e+00 0.000000e+00
6.450000e+01 6.000000e+00 0.000000e+00
6.750000e+01 6.000000e+00 0.000000e+00
7.050000e+01 6.000000e+00 0.000000e+00
7.350000e+01 6.000000e+00 0.000000e+00
7.650000e+01 6.000000e+00 0.000000e+00
7.950000e+01 6.000000e+00 0.000000e+00
8.250000e+01 6.000000e+00 0.000000e+00
8.550000e+01 6.000000e+00 0.000000e+00
8.850000e+01 6.000000e+00 0.000000e+00
9.150000e+01 6.000000e+00 0.000000e+00
9.450000e+01 6.000000e+00 0.000000e+00
-1.200000e+02 -1.500000e+02 0.000000e+00
-9.000000e+01 -1.500000e+02 0.000000e+00
-6.000000e+01 -1.500000e+02 0.000000e+00
-3.000000e+01 -1.500000e+02 0.000000e+00
-3.498144e-10 -1.500000e+02 0.000000e+00
3.000000e+01 -1.500000e+02 0.000000e+00
6.000000e+01 -1.500000e+02 0.000000e+00
9.000000e+01 -1.500000e+02 0.000000e+00
1.200000e+02 -1.500000e+02 0.000000e+00
1.500000e+02 -1.200000e+02 0.000000e+00
1.500000e+02 -9.000000e+01 0.000000e+00
1.500000e+02 -6.000000e+01 0.000000e+00
1.500000e+02 -3.000000e+01 0.000000e+00
1.500000e+02 -3.498144e-10 0.000000e+00
1.500000e+02 3.000000e+01 0.000000e+00
1.500000e+02 6.000000e+01 0.000000e+00
1.500000e+02 9.000000e+01 0.000000e+00
1.500000e+02 1.200000e+02 0.000000e+00
1.200000e+02 1.500000e+02 0.000000e+00
9.000000e+01 1.500000e+02 0.000000e+00
6.000000e+01 1.500000e+02 0.000000e+00
3.000000e+01 1.500000e+02 0.000000e+00
3.498144e-10 1.500000e+02 0.000000e+00
-3.000000e+01 1.500000e+02 0.000000e+00
-6.000000e+01 1.500000e+02 0.000000e+00
-9.000000e+01 1.500000e+02 0.000000e+00
-1.200000e+02 1.500000e+02 0.000000e+00
-1.500000e+02 1.200000e+02 0.000000e+00
-1.500000e+02 9.000000e+01 0.000000e+00
-1.500000e+02 6.000000e+01 0.000000e+00
-1.500000e+02 3.000000e+01 0.000000e+00
-1.500000e+02 3.498144e-10 0.000000e+00
-1.500000e+02 -3.000000e+01 0.000000e+00
-1.500000e+02 -6.000000e+01 0.000000e+00
-1.500000e+02 -9.000000e+01 0.000000e+00
-1.500000e+02 -1.200000e+02 0.000000e+00
-1.200000e+02 -1.500000e+02 -2.000000e+02
-9.000000e+01 -1.500000e+02 -2.000000e+02
-6.000000e+01 -1.500000e+02 -2.000000e+02
-3.000000e+01 -1.500000e+02 -2.000000e+02
-3.498144e-10 -1.500000e+02 -2.000000e+02
3.000000e+01 -1.500000e+02 -2.000000e+02
6.000000e+01 -1.500000e+02 -2.000000e+02
9.000000e+01 -1.500000e+02 -2.000000e+02
1.200000e+02 -1.500000e+02 -2.000000e+02
1.500000e+02 -1.200000e+02 -2.000000e+02
1.500000e+02 -9.000000e+01 -2.000000e+02
1.500000e+02 -6.000000e+01 -2.000000e+02
1.500000e+02 -3.000000e+01 -2.000000e+02
1.500000e+02 -3.498144e-10 -2.000000e+02
1.500000e+02 3.000000e+01 -2.000000e+02
1.500000e+02 6.000000e+01 -2.000000e+02
1.500000e+02 9.000000e+01 -2.000000e+02
1.500000e+02 1.200000e+02 -2.000000e+02
1.200000e+02 1.500000e+02 -2.000000e+02
9.000000e+01 1.500000e+02 -2.000000e+02
6.000000e+01 1.500000e+02 -2.000000e+02
3.000000e+01 1.500000e+02 -2.000000e+02
3.498144e-10 1.500000e+02 -2.000000e+02
-3.000000e+01 1.500000e+02 -2.000000e+02
-6.000000e+01 1.500000e+02 -2.000000e+02
-9.000000e+01 1.500000e+02 -2.000000e+02
-1.200000e+02 1.500000e+02 -2.000000e+02
-1.500000e+02 1.200000e+02 -2.000000e+02
-1.500000e+02 9.000000e+01 -2.000000e+02
-1.500000e+02 6.000000e+01 -2.000000e+02
-1.500000e+02 3.000000e+01 -2.000000e+02
-1.500000e+02 3.498144e-10 -2.000000e+02
-1.500000e+02 -3.000000e+01 -2.000000e+02
-1.500000e+02 -6.000000e+01 -2.000000e+02
-1.500000e+02 -9.000000e+01 -2.000000e+02
-1.500000e+02 -1.200000e+02 -2.000000e+02
-1.500000e+02 -1.500000e+02 -1.714286e+02
-1.500000e+02 -1.500000e+02 -1.428571e+02
-1.500000e+02 -1.500000e+02 -1.142857e+02
-1.500000e+02 -1.500000e+02 -8.571429e+01
-1.500000e+02 -1.500000e+02 -5.714286e+01
-1.500000e+02 -1.500000e+02 -2.857143e+01
-1.500000e+02 1.500000e+02 -1.714286e+02
-1.500000e+02 1.500000e+02 -1.428571e+02
-1.500000e+02 1.500000e+02 -1.142857e+02
-1.500000e+02 1.500000e+02 -8.571429e+01
-1.500000e+02 1.500000e+02 -5.714286e+01
-1.500000e+02 1.500000e+02 -2.857143e+01
1.500000e+02 1.500000e+02 -1.714286e+02
1.500000e+02 1.500000e+02 -1.428571e+02
1.500000e+02 1.500000e+02 -1.142857e+02
1.500000e+02 1.500000e+02 -8.571429e+01
1.500000e+02 1.500000e+02 -5.714286e+01
1.500000e+02 1.500000e+02 -2.857143e+01
1.500000e+02 -1.500000e+02 -1.714286e+02
1.500000e+02 -1.500000e+02 -1.428571e+02
1.500000e+02 -1.500000e+02 -1.142857e+02
1.500000e+02 -1.500000e+02 -8.571429e+01
1.500000e+02 -1.500000e+02 -5.714286e+01
1.500000e+02 -1.500000e+02 -2.857143e+01
2.400000e+01 -1.000000e+02 -3.000000e+01
2.800000e+01 -1.000000e+02 -3.000000e+01
3.200000e+01 -1.000000e+02 -3.000000e+01
3.600000e+01 -1.000000e+02 -3.000000e+01
4.000000e+01 -1.000000e+02 -2.600000e+01
4.000000e+01 -1.000000e+02 -2.200000e+01
4.000000e+01 -1.000000e+02 -1.800000e+01
4.000000e+01 -1.000000e+02 -1.400000e+01
3.600000e+01 -1.000000e+02 -1.000000e+01
3.200000e+01 -1.000000e+02 -1.000000e+01
2.800000e+01 -1.000000e+02 -1.000000e+01
2.400000e+01 -1.000000e+02 -1.000000e+01
2.000000e+01 -1.000000e+02 -1.400000e+01
2.000000e+01 -1.000000e+02 -1.800000e+01
2.000000e+01 -1.000000e+02 -2.200000e+01
2.000000e+01 -1.000000e+02 -2.600000e+01
4.000000e+01 9.600000e+01 -1.000000e+01
4.000000e+01 9.200000e+01 -1.000000e+01
4.000000e+01 8.800000e+01 -1.000000e+01
4.000000e+01 8.400000e+01 -1.000000e+01
4.000000e+01 8.000000e+01 -1.000000e+01
4.000000e+01 7.600000e+01 -1.000000e+01
4.000000e+01 7.200000e+01 -1.000000e+01
4.000000e+01 6.800000e+01 -1.000000e+01
4.000000e+01 6.400000e+01 -1.000000e+01
4.000000e+01 6.000000e+01 -1.000000e+01
4.000000e+01 5.600000e+01 -1.000000e+01
4.000000e+01 5.200000e+01 -1.000000e+01
4.000000e+01 4.800000e+01 -1.000000e+01
4.000000e+01 4.400000e+01 -1.000000e+01
4.000000e+01 4.000000e+01 -1.000000e+01
4.000000e+01 3.600000e+01 -1.000000e+01
4.000000e+01 3.200000e+01 -1.000000e+01
4.000000e+01 2.800000e+01 -1.000000e+01
4.000000e+01 2.400000e+01 -1.000000e+01
4.000000e+01 2.000000e+01 -1.000000e+01
4.000000e+01 1.600000e+01 -1.000000e+01
4.000000e+01 1.200000e+01 -1.000000e+01
4.000000e+01 8.000000e+00 -1.000000e+01
4.000000e+01 4.000000e+00 -1.000000e+01
4.000000e+01 3.471285e-10 -1.000000e+01
4.000000e+01 -4.000000e+00 -1.000000e+01
4.000000e+01 -8.000000e+00 -1.000000e+01
4.000000e+01 -1.200000e+01 -1.000000e+01
4.000000e+01 -1.600000e+01 -1.000000e+01
4.000000e+01 -2.000000e+01 -1.000000e+01
4.000000e+01 -2.400000e+01 -1.000000e+01
4.000000e+01 -2.800000e+01 -1.000000e+01
4.000000e+01 -3.200000e+01 -1.000000e+01
4.000000e+01 -3.600000e+01 -1.000000e+01
4.000000e+01 -4.000000e+01 -1.000000e+01
4.000000e+01 -4.400000e+01 -1.000000e+01
4.000000e+01 -4.800000e+01 -1.000000e+01
4.000000e+01 -5.200000e+01 -1.000000e+01
4.000000e+01 -5.600000e+01 -1.000000e+01
4.000000e+01 -6.000000e+01 -1.000000e+01
4.000000e+01 -6.400000e+01 -1.000000e+01
4.000000e+01 -6.800000e+01 -1.000000e+01
4.000000e+01 -7.200000e+01 -1.000000e+01
[...]
<PointData>
<DataArray Name="u2" type="Float64" NumberOfComponents="1" format="ascii">
0.000000e+00
0.000000e+00
0.000000e+00
0.000000e+00
0.000000e+00
0.000000e+00
0.000000e+00
0.000000e+00
-1.723975e+00
-1.807032e+00
-1.990924e+00
-1.918872e+00
-1.847435e+00
-1.914980e+00
-2.104591e+00
-2.040800e+00
3.720358e+00
2.590378e-01
2.795918e-01
3.013996e-01
3.248159e-01
3.497240e-01
3.763213e-01
4.047208e-01
4.352669e-01
4.682382e-01
5.037089e-01
5.420861e-01
5.836920e-01
6.290684e-01
6.784518e-01
7.324081e-01
7.913754e-01
8.557795e-01
9.268634e-01
1.005098e+00
1.091879e+00
1.187808e+00
1.294674e+00
1.413949e+00
1.546818e+00
1.695623e+00
1.863241e+00
2.052202e+00
2.266045e+00
2.508418e+00
2.784005e+00
3.096990e+00
3.453418e+00
3.857852e+00
4.313499e+00
4.819925e+00
5.359669e+00
5.894688e+00
6.347177e+00
6.598833e+00
6.529863e+00
6.191726e+00
5.670415e+00
5.061998e+00
4.438357e+00
3.851502e+00
3.325655e+00
2.874210e+00
2.488276e+00
2.165728e+00
1.893250e+00
1.661397e+00
1.464471e+00
1.295902e+00
1.150909e+00
1.025286e+00
9.158337e-01
8.207955e-01
7.377414e-01
6.652853e-01
6.010007e-01
5.447335e-01
4.948328e-01
4.508336e-01
4.119021e-01
-5.805457e-03
-3.558889e-02
-1.145793e-01
-2.885961e-01
-5.590636e-01
-7.616541e-01
-6.430708e-01
-3.996466e-01
-2.057521e-01
-1.363945e-01
-1.003648e-01
-4.679840e-03
1.041400e-01
1.610235e-01
1.362059e-01
6.076922e-02
6.466834e-04
-1.811679e-02
0.000000e+00
0.000000e+00
0.000000e+00
0.000000e+00
0.000000e+00
0.000000e+00
0.000000e+00
0.000000e+00
0.000000e+00
0.000000e+00
0.000000e+00
0.000000e+00
0.000000e+00
0.000000e+00
0.000000e+00
0.000000e+00
0.000000e+00
0.000000e+00
0.000000e+00
0.000000e+00
0.000000e+00
0.000000e+00
0.000000e+00
0.000000e+00
0.000000e+00
0.000000e+00
0.000000e+00
0.000000e+00
0.000000e+00
0.000000e+00
0.000000e+00
0.000000e+00
0.000000e+00
0.000000e+00
0.000000e+00
0.000000e+00
0.000000e+00
0.000000e+00
0.000000e+00
0.000000e+00
0.000000e+00
0.000000e+00
0.000000e+00
0.000000e+00
0.000000e+00
0.000000e+00
0.000000e+00
0.000000e+00
0.000000e+00
0.000000e+00
0.000000e+00
0.000000e+00
0.000000e+00
0.000000e+00
0.000000e+00
0.000000e+00
0.000000e+00
0.000000e+00
0.000000e+00
0.000000e+00
0.000000e+00
0.000000e+00
0.000000e+00
0.000000e+00
0.000000e+00
0.000000e+00
0.000000e+00
0.000000e+00
0.000000e+00
0.000000e+00
0.000000e+00
0.000000e+00
0.000000e+00
0.000000e+00
0.000000e+00
0.000000e+00
0.000000e+00
0.000000e+00
-1.986982e+00
-2.028953e+00
-2.063941e+00
-2.097803e+00
-2.101679e+00
-2.089747e+00
-2.070696e+00
-2.042540e+00
-1.983813e+00
-1.945154e+00
-1.910880e+00
-1.867104e+00
-1.849166e+00
-1.873775e+00
-1.901273e+00
-1.920000e+00
-1.848868e+00
-1.736850e+00
-1.609945e+00
-1.479180e+00
-1.341856e+00
-1.194781e+00
-1.031788e+00
-8.548056e-01
-6.693413e-01
-4.702441e-01
-2.557313e-01
-2.240128e-02
2.271364e-01
4.982033e-01
7.851446e-01
1.086184e+00
1.393879e+00
1.710414e+00
2.029445e+00
2.342342e+00
2.625122e+00
2.860883e+00
3.070355e+00
3.162440e+00
3.222090e+00
3.149590e+00
3.046781e+00
2.864286e+00
2.621558e+00
2.318152e+00
2.015085e+00
1.697302e+00
1.373603e+00
1.058705e+00
7.530057e-01
4.665552e-01
1.968600e-01
-5.909720e-02
-2.935328e-01
-5.116127e-01
-7.135775e-01
-9.011544e-01
-1.076490e+00
-1.241953e+00
-1.396031e+00
-1.537560e+00
-1.669188e+00
-1.797451e+00
-1.909493e+00
-1.963642e+00
-1.871707e+00
-1.761223e+00
-1.651845e+00
-1.532787e+00
-1.407955e+00
-1.274684e+00
-1.138290e+00
-9.936863e-01
-8.385583e-01
-6.699003e-01
-5.008796e-01
-3.150495e-01
-1.222287e-01
7.149859e-02
2.691464e-01
4.679528e-01
6.602660e-01
8.539196e-01
1.026691e+00
1.194547e+00
1.313208e+00
1.410327e+00
1.467118e+00
1.483081e+00
1.476714e+00
1.394053e+00
1.300049e+00
1.173034e+00
1.013888e+00
8.316616e-01
6.454407e-01
4.472641e-01
2.424213e-01
4.560453e-02
-1.603233e-01
-3.550522e-01
-5.384476e-01
-7.097818e-01
-8.765036e-01
-1.033246e+00
-1.183754e+00
-1.325178e+00
-1.460753e+00
-1.584250e+00
-1.707633e+00
-1.818820e+00
-1.930338e+00
-2.029931e+00
-1.764184e+00
-1.646606e+00
-1.515264e+00
-1.373506e+00
-1.222155e+00
-1.057912e+00
-8.808779e-01
-6.881231e-01
-4.779606e-01
-2.501503e-01
-2.647408e-03
2.686762e-01
5.636719e-01
8.841595e-01
1.234778e+00
1.612239e+00
2.006623e+00
2.429935e+00
2.875624e+00
3.280026e+00
3.706539e+00
4.032651e+00
4.344844e+00
4.519697e+00
4.552337e+00
4.508806e+00
4.341608e+00
4.037446e+00
3.664216e+00
3.282381e+00
2.858929e+00
2.424156e+00
2.000231e+00
1.590232e+00
1.204540e+00
8.563851e-01
5.322856e-01
2.321739e-01
-4.102705e-02
-2.922308e-01
-5.235862e-01
-7.347815e-01
-9.294131e-01
-1.106331e+00
-1.274014e+00
-1.429567e+00
-1.570855e+00
-1.705870e+00
-1.827599e+00
-1.685453e+00
-1.545953e+00
-1.389743e+00
-1.218685e+00
-1.033185e+00
-8.310727e-01
-6.098120e-01
-3.615671e-01
-8.600294e-02
2.200229e-01
5.627546e-01
9.485517e-01
1.390145e+00
1.890551e+00
2.463764e+00
3.111865e+00
3.852123e+00
4.714007e+00
5.638701e+00
6.709630e+00
7.843122e+00
8.940110e+00
9.886230e+00
1.057851e+01
1.075508e+01
1.058519e+01
9.867498e+00
8.951335e+00
7.838565e+00
6.683647e+00
5.645125e+00
4.729547e+00
3.889040e+00
3.150043e+00
2.491333e+00
1.917893e+00
1.420278e+00
9.825098e-01
6.005760e-01
2.578492e-01
-4.219392e-02
-3.130603e-01
-5.593078e-01
-7.796538e-01
-9.808245e-01
-1.166058e+00
-1.329954e+00
-1.484351e+00
-1.624206e+00
-1.795761e+00
-1.846235e+00
-1.887228e+00
-1.913786e+00
-1.982205e+00
-2.010281e+00
-2.026760e+00
-2.041669e+00
-1.781522e+00
-1.813170e+00
-1.839165e+00
-1.860681e+00
-1.925408e+00
-1.969480e+00
-2.003824e+00
-2.031404e+00
-1.755877e-01
-9.097582e-01
-5.028777e-01
-2.491124e-01
-7.056335e-03
6.007692e-02
7.175070e-02
6.255813e-02
1.101310e-01
1.422966e-02
-2.950269e-01
9.178688e-02
-3.706564e-02
2.269411e-02
8.523018e-02
1.495484e-01
5.920563e-02
1.403807e-01
1.784916e-01
8.834763e-02
1.565159e-01
8.535681e-02
1.518840e-01
2.726393e-01
2.495824e-01
4.071220e-01
4.082597e-01
6.166125e-01
6.148169e-01
5.511104e-01
8.618692e-01
9.020600e-01
1.184869e+00
1.351156e+00
9.053157e-01
1.360686e+00
1.062887e+00
8.061087e-01
1.320880e+00
2.080926e+00
1.981936e+00
1.084807e+00
1.735287e+00
6.341580e-01
9.400703e-01
1.871650e+00
1.098364e+00
4.159041e-01
7.256771e-01
2.082550e-01
4.433711e-01
8.200594e-01
5.932004e-01
3.095750e-01
4.665220e-01
1.928316e+00
2.817845e+00
8.724294e-01
2.801853e+00
3.604310e+00
1.537392e+00
2.371986e-01
3.337092e-01
3.596272e+00
2.799858e+00
4.324576e+00
4.336362e+00
5.025570e+00
4.878592e+00
5.399157e+00
5.003515e+00
3.288561e+00
2.710117e+00
5.211428e-01
3.912269e-01
5.476827e+00
4.988461e+00
-1.424208e-01
2.452315e-01
4.916646e+00
5.407066e+00
4.832218e+00
3.482316e-01
3.088481e+00
2.594846e+00
2.292149e+00
2.231845e+00
3.621600e+00
5.194280e-01
4.121546e-01
6.446714e-01
4.415521e+00
4.251679e+00
4.437287e+00
4.608885e+00
4.000234e+00
3.708160e+00
3.487150e+00
3.198856e+00
3.017853e+00
3.298901e+00
2.855064e+00
-1.392882e-01
-5.728831e-01
3.043505e+00
2.695416e+00
5.866867e+00
6.384439e-01
7.482916e-01
4.309334e+00
2.470079e+00
2.140492e+00
1.932292e+00
1.891238e+00
1.695520e+00
1.684091e+00
1.713282e+00
1.495415e+00
1.458665e+00
1.315999e+00
1.283492e+00
1.125774e+00
1.132106e+00
-4.169756e-01
1.666009e-01
3.398009e+00
3.466601e+00
3.902191e+00
2.841164e+00
2.552714e+00
2.413365e+00
2.297788e+00
7.293157e-01
6.379960e-01
8.274374e-01
2.159186e+00
2.048009e+00
2.269846e+00
2.138931e+00
1.925541e+00
1.838407e+00
1.740125e+00
1.653872e+00
1.581820e+00
4.711555e+00
1.620088e+00
1.678665e+00
1.528281e+00
1.437884e+00
1.385084e+00
1.306909e+00
1.260594e+00
1.187061e+00
1.149388e+00
1.078215e+00
1.047469e+00
9.762725e-01
9.351165e-01
8.788264e-01
8.450106e-01
7.915315e-01
7.590630e-01
7.101614e-01
6.786247e-01
6.339989e-01
6.084526e-01
5.640700e-01
5.444459e-01
4.982305e-01
4.741061e-01
4.269556e-01
4.147064e-01
6.494941e-01
8.134251e-01
5.085207e-01
9.130569e-01
3.603167e-01
3.542688e-01
7.249598e-01
9.983426e-01
1.210449e+00
2.080093e+00
1.232022e+00
1.119922e+00
-8.991491e-01
3.173333e-01
3.489664e-01
4.223014e-01
3.380035e-01
3.777866e-01
3.214030e-01
4.468702e+00
2.885118e-01
3.000231e-01
2.665213e+00
1.462097e+00
2.032851e+00
4.572582e-01
2.221767e+00
2.728494e+00
6.968906e-01
6.240668e-01
3.469973e+00
5.758281e-01
5.753075e-01
3.514222e-01
2.862524e+00
3.687405e+00
3.338860e+00
4.181778e+00
4.323141e+00
1.351782e+00
1.208840e+00
1.106648e+00
1.313148e+00
7.835903e-01
4.806941e+00
5.066710e+00
4.488129e+00
4.739214e+00
1.718282e+00
4.518430e+00
4.951985e+00
5.149816e+00
5.342682e+00
1.340903e+00
2.976496e-01
2.854944e-01
1.113703e+00
4.100747e-01
-1.033262e+00
-4.685696e-01
6.138197e-01
5.682425e-01
5.353329e-01
2.109370e+00
1.978113e+00
3.553145e+00
3.224222e+00
1.011795e+00
5.868752e-01
4.543392e+00
4.283441e+00
2.720073e+00
2.545972e+00
-1.460871e+00
-1.340490e+00
-1.806601e-01
3.037930e+00
2.959424e+00
-2.352430e-01
-7.673135e-02
5.524802e+00
5.702493e+00
5.495230e+00
5.843073e+00
5.674139e+00
6.019019e+00
6.114911e+00
2.892537e+00
3.054643e+00
1.206551e+00
5.328364e-01
5.028203e-01
1.022297e-01
5.040486e-01
1.162558e+00
1.080464e+00
1.028499e+00
1.013508e+00
9.628485e-01
9.497907e-01
9.004546e-01
1.248645e+00
1.348636e+00
5.292479e+00
2.765465e+00
7.708316e-01
7.529590e-01
8.908315e-01
2.576314e+00
2.450922e+00
2.225311e+00
5.163370e+00
5.381086e+00
5.300138e+00
5.603901e+00
6.864478e-01
6.278568e+00
6.317809e+00
2.645311e+00
6.162856e+00
6.328289e+00
6.451640e+00
6.427509e+00
6.253415e+00
6.288841e+00
6.106946e+00
6.079411e+00
4.990893e-01
4.739189e-01
4.710138e-01
7.162394e-01
4.321931e-01
4.057119e-01
2.527432e-01
2.452655e-01
2.695326e-01
2.577470e-01
2.256915e-01
1.964126e-01
2.377952e-01
2.992237e-01
1.920217e-01
2.155847e-01
1.828562e-01
2.056377e-01
4.482354e-01
2.149678e+00
2.042404e+00
1.934798e+00
1.866526e+00
1.837316e+00
3.128550e+00
2.892218e+00
2.736279e+00
2.692333e+00
2.542653e+00
2.485638e+00
2.359507e+00
2.320491e+00
1.731824e-01
1.904226e-01
4.949622e+00
1.770904e+00
1.743945e+00
1.681683e+00
1.658909e+00
2.288839e-02
3.625655e+00
3.764885e+00
3.550794e+00
3.799891e+00
3.639583e+00
3.405605e+00
1.511526e+00
1.606686e+00
1.599722e+00
1.583683e+00
9.720600e-01
5.646822e-01
5.502668e-01
5.888677e-01
5.621334e-01
5.328531e-01
6.059535e-01
5.471573e-01
5.209258e-01
5.065604e-01
4.976723e-01
4.826768e-01
4.756007e-01
4.603707e-01
4.541502e-01
5.744905e-01
6.241865e-01
6.393835e-01
6.592336e-01
6.715585e-01
6.931744e-01
7.053258e-01
7.259707e-01
7.135403e-01
7.527130e-01
7.602980e-01
7.903192e-01
7.998968e-01
8.270699e-01
7.373009e-01
6.486116e-01
6.235516e-01
4.880795e-01
1.215921e+00
8.756710e-01
1.080499e+00
1.047161e+00
1.114739e+00
9.764264e-01
1.009895e+00
9.577982e-01
1.062498e+00
1.132381e+00
1.309687e+00
1.270539e+00
1.345609e+00
1.305996e+00
1.240656e+00
1.378657e+00
4.388472e-01
4.313031e-01
1.918066e+00
1.801252e+00
1.727926e+00
1.589746e+00
1.889247e+00
1.675733e+00
1.553822e+00
1.811822e+00
1.963725e+00
2.054104e+00
1.472760e+00
1.758039e+00
5.693871e+00
1.043500e+00
4.325337e+00
4.615569e+00
4.999480e+00
3.822482e+00
4.364742e+00
1.416724e+00
1.203308e+00
2.306843e+00
3.383873e+00
8.100142e-01
7.883695e-01
7.438319e-01
2.452127e-01
2.685506e-01
4.764487e-01
1.995641e-01
5.260461e-02
5.051437e-02
-2.721919e-01
-9.957089e-02
4.130536e-01
1.900698e+00
5.611556e-01
1.166937e+00
1.554950e+00
5.646167e-01
5.970277e-01
6.292327e-01
2.404882e+00
1.444967e+00
2.213651e+00
6.247845e+00
6.038582e+00
6.427160e+00
1.638173e-01
1.885544e-01
2.334831e-01
2.232909e-01
2.749165e-01
2.999443e-01
3.351212e-01
3.163386e-01
3.947617e-01
3.609139e-01
4.546657e-01
4.028535e-01
5.159049e-01
4.461729e-01
5.923923e-01
4.852565e-01
6.472342e-01
7.669472e-01
8.730595e-01
6.951333e-01
9.411915e-01
7.075952e-01
1.001277e+00
1.291139e+00
1.391476e+00
1.033026e+00
1.513120e+00
1.661669e+00
1.538205e+00
1.887483e+00
1.692523e+00
2.039812e+00
2.245586e+00
2.338423e+00
2.632346e+00
2.147608e+00
2.397383e+00
2.208783e+00
2.431681e+00
2.625952e+00
2.643171e+00
2.820449e+00
2.840147e+00
2.989563e+00
2.999423e+00
3.153937e+00
3.131150e+00
3.017896e+00
3.134195e+00
3.145655e+00
3.291203e+00
3.298747e+00
3.462163e+00
3.474330e+00
3.705923e+00
3.698586e+00
3.023915e+00
3.146357e+00
3.228910e+00
2.455306e+00
9.577923e-01
1.453579e+00
3.026064e+00
3.287305e-01
3.131979e+00
3.240942e+00
3.228926e+00
3.331793e+00
7.292108e-01
1.266264e+00
2.324336e+00
1.802004e+00
3.222221e+00
2.068016e+00
3.350530e+00
1.957489e+00
1.175424e+00
1.190104e+00
5.530595e-01
7.061895e-01
2.795283e+00
4.064980e+00
1.124194e+00
7.413397e-01
3.642936e+00
4.781603e+00
5.113062e+00
5.817533e+00
5.832799e+00
2.516092e-01
-3.003295e-02
6.390783e+00
1.084758e+00
7.515975e-01
6.054120e+00
3.994047e+00
3.972283e+00
6.368160e+00
9.350117e-01
7.096902e-01
1.214096e+00
4.192662e+00
6.206518e+00
3.321216e+00
3.409032e+00
3.420567e+00
3.497342e+00
3.484378e+00
3.556612e+00
3.550663e+00
3.611464e+00
3.611586e+00
3.673994e+00
3.672324e+00
3.734981e+00
3.739303e+00
3.794765e+00
3.795854e+00
3.853092e+00
3.852627e+00
3.920069e+00
3.917909e+00
3.851262e+00
3.491217e+00
3.548770e+00
3.744101e+00
8.375784e-01
6.427727e-01
2.918295e+00
3.025783e+00
4.327652e+00
4.307766e+00
5.235651e-01
3.066185e-01
3.735559e+00
7.423823e-01
8.803856e-01
1.987925e+00
2.038624e+00
1.854544e+00
1.879261e+00
1.731562e+00
1.759982e+00
1.624641e+00
1.593233e+00
1.493669e+00
1.458853e+00
1.366558e+00
1.904924e+00
1.401421e+00
1.282196e+00
1.246590e+00
1.176057e+00
3.304966e+00
3.610306e+00
1.642132e+00
2.936851e+00
3.176895e+00
2.670625e+00
3.758298e+00
3.108411e-01
-1.318223e-01
5.694538e-01
4.324462e+00
4.678240e+00
4.678689e+00
4.004393e+00
5.010643e+00
4.947978e+00
5.310912e+00
3.998684e+00
4.105347e+00
4.101717e+00
4.225144e+00
4.215547e+00
2.498885e+00
4.360912e+00
1.213588e+00
1.113705e+00
1.079405e+00
1.019478e+00
9.864959e-01
9.360265e-01
5.009817e-01
7.960479e-01
6.930595e-01
9.120293e-01
2.812050e+00
2.413178e+00
8.996647e-01
8.504660e-01
3.224371e+00
5.265683e+00
5.608247e+00
1.425571e+00
1.042327e+00
5.055776e+00
5.475491e-01
4.959943e-01
5.513197e+00
9.601229e-01
3.436050e+00
3.498825e+00
3.546515e+00
3.553764e+00
3.508328e+00
3.574466e+00
3.521190e+00
3.582466e+00
7.225823e-01
6.496240e-01
1.142488e+00
1.214662e+00
2.513323e+00
2.208668e+00
3.595011e+00
2.830511e+00
2.434268e+00
3.454629e+00
3.467613e+00
2.109392e+00
1.944550e+00
4.080667e-01
3.664052e+00
3.740043e+00
4.348257e+00
4.515263e+00
5.519697e+00
5.866425e+00
3.855671e+00
4.217743e+00
4.096250e+00
3.961613e+00
4.361197e+00
4.197593e+00
2.006733e+00
1.784909e+00
1.718684e+00
1.595643e+00
1.026355e+00
1.035520e+00
1.522296e+00
9.572427e-01
1.053531e+00
-5.796805e-01
-4.862787e-01
5.948494e+00
6.200871e+00
3.317775e+00
6.716986e-01
6.111798e-01
5.847980e-01
5.524571e-01
5.303274e-01
4.967582e-01
4.802763e-01
7.350256e-01
3.651829e+00
1.425274e+00
1.157711e+00
1.221033e+00
3.835635e+00
1.499006e+00
3.589801e+00
3.631003e+00
3.628021e+00
3.670050e+00
3.634323e+00
3.220916e+00
5.775906e+00
5.189846e+00
3.148985e+00
4.495042e+00
8.129951e-01
7.669756e-01
7.977758e-01
7.269045e-01
8.635615e-01
7.466292e-01
6.912579e-01
8.022746e-01
-1.413710e-01
6.664541e-01
6.417965e-01
1.869785e+00
2.035268e+00
2.606883e+00
1.278577e+00
6.573884e-01
6.145234e-01
5.969546e-01
5.738159e-01
5.546650e-01
5.354394e-01
5.154741e-01
4.958750e-01
3.410599e+00
3.311302e+00
1.094635e+00
3.685120e+00
4.047462e+00
3.400575e+00
2.858320e+00
3.111701e+00
5.807452e-01
1.351324e+00
9.781238e-01
7.695366e-01
8.122807e-01
4.733185e-01
4.567620e-01
4.956822e-01
3.733555e+00
3.830666e+00
3.741941e+00
1.397428e+00
1.280299e+00
1.508336e+00
6.968451e-01
3.605177e-01
3.131476e+00
3.384800e+00
7.435181e-01
9.072744e-01
4.105401e+00
3.932816e+00
1.285263e+00
1.342302e+00
6.278728e+00
6.491171e+00
6.412848e+00
6.640044e+00
6.727309e+00
6.786040e+00
6.805355e+00
6.808927e+00
6.780749e+00
6.701989e+00
6.669687e+00
6.527571e+00
6.430818e+00
6.232363e+00
6.109181e+00
5.860650e+00
5.707796e+00
5.422972e+00
5.267816e+00
5.013080e+00
5.517249e+00
5.949279e+00
1.045758e+00
1.638901e+00
1.340989e+00
1.406652e+00
8.479123e-01
4.667125e-01
3.037758e-01
1.997600e-01
1.128825e-01
1.996024e-01
-1.144599e-01
6.537258e+00
6.313738e+00
3.634480e+00
3.660520e+00
3.593013e+00
3.708479e+00
-3.575486e-01
3.664011e+00
3.702692e+00
3.709706e+00
1.106408e+00
1.056557e+00
1.348331e+00
3.811803e-01
2.761944e-01
4.373858e-01
4.209215e-01
2.967129e+00
4.680919e+00
8.558752e-01
8.902816e-01
5.635060e+00
5.870869e+00
3.672730e+00
6.467220e-02
1.285775e-01
2.170324e-02
4.988500e+00
2.865337e-01
4.650893e+00
8.986979e-01
9.309288e-01
7.494355e-01
5.787676e-01
1.551388e+00
1.393474e+00
3.639150e+00
3.557835e+00
5.237663e+00
2.627644e+00
2.446076e+00
9.911855e-01
6.588942e+00
6.364310e-01
6.669481e-01
-1.035769e+00
4.710801e+00
1.225600e+00
1.901359e+00
1.770217e+00
2.047694e+00
7.085248e-01
6.657274e-01
1.237749e+00
2.784531e-01
4.854373e+00
5.541806e-01
5.234064e-01
4.855371e-01
-1.359548e-01
6.581540e+00
3.208491e-01
3.740775e+00
3.741388e+00
3.372419e+00
3.641584e+00
3.657142e+00
3.948402e+00
1.401987e+00
1.468247e+00
1.473601e+00
1.533581e+00
9.668503e-01
3.923176e+00
4.219617e+00
4.263855e+00
1.070257e+00
1.026427e+00
1.008342e+00
3.605367e+00
3.724540e+00
3.212877e+00
3.127405e+00
3.325222e+00
4.200131e+00
4.452098e+00
1.533862e+00
1.594523e+00
3.140437e+00
7.833500e-01
7.473429e-01
6.954894e-01
2.619121e-01
2.825898e+00
2.623146e-01
1.799539e+00
1.686688e+00
7.965507e-01
7.275730e-02
1.612451e-01
1.432596e+00
4.791606e+00
-1.004303e+00
8.870256e-02
1.533346e+00
3.393094e+00
3.405109e+00
4.395156e-01
4.020438e-01
1.599275e+00
1.665758e+00
1.653457e+00
1.728932e+00
1.745955e+00
1.811205e+00
1.802034e+00
1.880788e+00
1.896234e+00
1.964123e+00
1.988207e+00
2.064086e+00
2.089606e+00
2.179862e+00
2.201309e+00
2.296985e+00
2.266439e+00
2.389522e+00
2.418453e+00
2.508290e+00
2.543847e+00
2.485308e+00
2.592445e+00
2.559641e+00
2.668858e+00
2.706076e+00
2.781984e+00
2.469970e+00
2.634306e+00
1.941943e+00
2.827610e+00
2.746157e+00
2.102533e+00
2.220799e+00
4.058381e+00
2.207125e+00
3.825707e+00
3.935421e+00
3.924271e+00
2.897638e+00
2.856896e+00
9.341831e-01
1.662859e-01
1.610651e+00
1.462449e+00
-2.484614e-01
-5.310398e-01
6.735935e+00
6.776179e+00
6.321031e+00
3.715657e+00
3.664461e+00
3.667824e+00
3.743083e+00
3.767344e+00
3.765574e+00
3.642635e+00
3.672381e+00
3.399256e+00
1.473473e+00
4.247366e+00
1.116614e+00
1.684663e-02
3.344545e+00
8.848205e-01
-1.589349e+00
-1.187571e+00
-1.410772e+00
-8.428838e-01
3.623094e+00
3.658227e+00
6.454467e-01
6.194575e-01
1.289785e+00
1.244332e+00
2.467910e+00
2.296090e+00
2.635374e+00
5.863967e-01
4.475735e+00
4.622077e+00
7.475721e-01
7.840510e-01
7.853886e-01
8.230552e-01
1.185626e+00
1.213215e+00
1.337728e+00
2.443352e+00
2.583871e+00
5.726857e-01
1.340155e+00
1.387110e+00
1.052680e+00
1.105935e+00
8.203313e-01
6.232457e-01
5.925335e-01
5.586254e-01
5.704985e-01
5.411843e-01
5.283340e-01
5.148418e-01
5.010163e-01
4.879895e-01
4.747182e-01
4.400744e-01
4.226198e-01
3.774301e-01
3.972889e-01
3.411976e-01
3.061718e-01
2.703759e-01
4.258571e+00
-1.148968e-01
1.095695e+00
1.803052e+00
6.416754e+00
6.596557e+00
6.196800e+00
6.084080e+00
2.315414e+00
5.517653e-01
3.248595e+00
4.055814e+00
3.237885e+00
1.502114e+00
1.625347e+00
1.670750e+00
4.197100e-01
8.215042e-01
2.473024e+00
2.342339e+00
2.969826e+00
2.925516e+00
9.300056e-01
7.554818e-01
7.270381e-01
2.081784e+00
8.374065e-01
8.615825e-01
8.529719e-01
4.832703e-01
2.946561e+00
2.087018e+00
2.017144e+00
4.612330e-01
4.479785e-01
4.381814e-01
3.881315e+00
1.095352e+00
8.476410e-01
8.251256e-01
1.620585e+00
4.613667e+00
5.344080e-01
5.161766e-01
3.600155e+00
3.388634e+00
6.535571e-01
9.772398e-01
9.391000e-01
9.215022e-01
9.624011e-01
1.876612e+00
1.151176e+00
1.157051e+00
9.044518e-01
5.425482e+00
5.610718e+00
5.346348e+00
5.179849e+00
5.138457e+00
2.408010e-01
6.721900e-01
6.905041e-01
6.013388e-01
1.344216e+00
5.962977e+00
5.731572e+00
5.436502e+00
5.988149e+00
6.223417e+00
5.295575e+00
5.116763e+00
4.982940e+00
4.845916e+00
3.358783e+00
4.723045e-01
3.302510e+00
5.822117e+00
8.924701e-01
1.066217e+00
3.099342e+00